
                                 *****************
                                 * O   R   C   A *
                                 *****************

                                            #,                                       
                                            ###                                      
                                            ####                                     
                                            #####                                    
                                            ######                                   
                                           ########,                                 
                                     ,,################,,,,,                         
                               ,,#################################,,                 
                          ,,##########################################,,             
                       ,#########################################, ''#####,          
                    ,#############################################,,   '####,        
                  ,##################################################,,,,####,       
                ,###########''''           ''''###############################       
              ,#####''   ,,,,##########,,,,          '''####'''          '####       
            ,##' ,,,,###########################,,,                        '##       
           ' ,,###''''                  '''############,,,                           
         ,,##''                                '''############,,,,        ,,,,,,###''
      ,#''                                            '''#######################'''  
     '                                                          ''''####''''         
             ,#######,   #######,   ,#######,      ##                                
            ,#'     '#,  ##    ##  ,#'     '#,    #''#        ,####,    ,#,          
            ##       ##  ##   ,#'  ##            #'  '#       #'       ,# #          
            ##       ##  #######   ##           ,######,      #####,      #          
            '#,     ,#'  ##    ##  '#,     ,#' ,#      #,     #,   #      #          
             '#######'   ##     ##  '#######'  #'      '#     '####' #    #          



                #########################################################
                #                        -***-                          #
                #          Department of theory and spectroscopy        #
                #                                                       #
                #                      Frank Neese                      #
                #                                                       #
                #     Directorship, Architecture, Infrastructure        #
                #                    SHARK, DRIVERS                     #
                #        Core code/Algorithms in most modules           #
                #                                                       #
                #        Max Planck Institute fuer Kohlenforschung      #
                #                Kaiser Wilhelm Platz 1                 #
                #                 D-45470 Muelheim/Ruhr                 #
                #                      Germany                          #
                #                                                       #
                #                  All rights reserved                  #
                #                        -***-                          #
                #########################################################


                         Program Version 6.1.0  -  RELEASE   -
                                (GIT: $679e74b$)
                          ($2025-06-10 18:02:51 +0200$)


 With contributions from (in alphabetic order):
[Max-Planck-Institut fuer Kohlenforschung]                               
  Daniel Aravena         : Magnetic Suceptibility                        
  Michael Atanasov       : Ab Initio Ligand Field Theory (pilot matlab implementation)
  Alexander A. Auer      : GIAO ZORA, VPT2 properties, NMR spectrum      
  Ute Becker             : All parallelization in ORCA, NUMFREQ, NUMCALC 
  Giovanni Bistoni       : ED, misc. LED, open-shell LED, HFLD           
  Dmytro Bykov           : pre 5.0 version of the SCF Hessian            
  Marcos Casanova-Páez   : Triplet and SCS-CIS(D). UHF-(DLPNO)-IP/EA/STEOM-CCSD. UHF-CVS-IP/STEOM-CCSD   
  Vijay G. Chilkuri      : MRCI spin determinant printing, contributions to CSF-ICE 
  Pauline Colinet        : FMM embedding                                 
  Dipayan Datta          : RHF DLPNO-CCSD density                        
  Achintya Kumar Dutta   : EOM-CC, STEOM-CC                              
  Nicolas Foglia         : Exact transition moments, OPA infrastructure, MCD improvements    
  Dmitry Ganyushin       : Spin-Orbit,Spin-Spin,Magnetic field MRCI      
  Miquel Garcia-Rates    : C-PCM and meta-GGA Hessian, CCSD/C-PCM, Gaussian charge scheme 
  Tiago L. C. Gouveia    : GS-ROHF, GS-ROCIS                             
  Yang Guo               : DLPNO-NEVPT2, F12-NEVPT2, CIM, IAO-localization        
  Andreas Hansen         : Spin unrestricted coupled pair/coupled cluster methods 
  Ingolf Harden          : AUTO-CI MPn and infrastructure                
  Benjamin Helmich-Paris : MC-RPA, TRAH-(SCF,CASSCF), AVAS, COSX integrals, SCF dyn. polar., MC-PDFT, srDFT 
  Lee Huntington         : MR-EOM, pCC                                   
  Robert Izsak           : Overlap fitted RIJCOSX, COSX-SCS-MP3, EOM     
  Riya Kayal             : Wick's Theorem for AUTO-CI, AUTO-CI UHF-CCSDT 
  Emily Kempfer          : AUTO-CI RHF CISDT and CCSDT, approximate NEVPT4
  Christian Kollmar      : KDIIS, OOCD, Brueckner-CCSD(T), CCSD density, CASPT2, CASPT2-K, improved NEVPT2 
  Axel Koslowski         : Symmetry handling                             
  Simone Kossmann        : meta-GGA functionals, TD-DFT gradient, OOMP2, (MP2 Hessian; deprecated post 5.0) 
  Lucas Lang             : DCDCAS, Hyperfine gauge corrections, ICE-SOC+SSC
  Marvin Lechner         : AUTO-CI (C++ implementation), FIC-MRCC        
  Spencer Leger          : CASSCF response                               
  Dagmar Lenk            : GEPOL surface, SMD, ORCA-2-JSON               
  Dimitrios Liakos       : Extrapolation schemes; Compound Job, Property file
  Dimitrios Manganas     : Further ROCIS development; embedding schemes. LFT, Crystal Embedding 
  Dimitrios Pantazis     : SARC Basis sets                               
  Anastasios Papadopoulos: AUTO-CI, single reference methods and gradients 
  Taras Petrenko         : pre 6.0 DFT Hessian and TD-DFT gradient,  ECA, NRVS 
  Petra Pikulova         : Analytic Raman intensities                    
  Peter Pinski           : DLPNO-MP2, DLPNO-MP2 Gradient                 
  Shashank Vittal Rao    : ES-AILFT, MagRelax                            
  Christoph Reimann      : Effective Core Potentials                     
  Marius Retegan         : Local ZFS, SOC                                
  Christoph Riplinger    : Optimizer, TS searches, QM/MM, DLPNO-CCSD(T), (RO)-DLPNO pert. Triples 
  Michael Roemelt        : Original ROCIS implementation, recursive CI coupling coefficients
  Masaaki Saitow         : Open-shell DLPNO-CCSD energy and density      
  Barbara Sandhoefer     : DKH picture change effects                    
  Yorick L. A. Schmerwitz: GMF and freeze-and-release deltaSCF, NEB S-IDPP initial path                    
  Kantharuban Sivalingam : CASSCF convergence/infrastructure, NEVPT2, NEVPT3, NEVPT4(SD), FIC-MRCI and CEPA variants
  Bernardo de Souza      : ESD, SOC TD-DFT                               
  Georgi L. Stoychev     : AutoAux, RI-MP2 NMR, DLPNO-MP2 response, X2C  
  Van Anh Tran           : RI-MP2 g-tensors                              
  Willem Van den Heuvel  : Paramagnetic NMR                              
  Zikuan Wang            : NOTCH, Electric field optimization            
  Frank Wennmohs         : Technical directorship and infrastructure     
  Hang Xu                : AUTO-CI-Response properties                   
                                                                         
[FACCTs GmbH]                                                            
  Markus Bursch, Nicolas Foglia, Miquel Garcia-Rates, Ingolf Harden, Hagen Neugebauer, Anastasios Papadopoulos, 
  Christoph Riplinger, Bernardo de Souza, Georgi L. Stoychev                                                    
                                                                 
  APM, various basis sets, CI-OPT, improved COSX, DLPNO-Multilevel,           
  DOCKER, DRACO, updates on ESD, Fragmentator, GOAT, IRC, LR-CPCM, L-BFGS, MBIS, meta-GGA TD-DFT gradient, ML-optimized integration grids, 
  MM, NACMEs, nearIR, NEB, NEB-TS, NL-DFT gradient (VV10), 2- and 3-layer-ONIOM, interface openCOSMO-RS, QMMM,   
  Crystal-QMMM, RESP, rigid body optimization, SF, symmetry and pop. for TD-DFT, various functionals, SOLVATOR                                   
                                                                         
[Other institutions]                                                     
  V. Asgeirsson          : NEB                                           
  Christoph Bannwarth    : sTDA-DFT, sTD-DFT, PBEh-3c, B97-3c, D3        
  Giovanni Bistoni       : ETS/NOCV, ADLD/ADEX, COVALED                  
  Martin Brehm           : Molecular dynamics                            
  Ronald Cardenas        : ETS/NOCV                                      
  Martina Colucci        : COVALED                                       
  Sebastian Ehlert       : rSCAN, r2SCAN, r2SCAN-3c, D4, dhf basis sets  
  Marvin Friede          : D4 for Fr, Ra, Ac-Lr                          
  Lars Goerigk           : TD-DFT with DH, B97 family of functionals     
  Stefan Grimme          : VdW corrections, initial TS optimization, DFT functionals, gCP, sTDA/sTD-DF 
  Waldemar Hujo          : DFT-NL                                        
  H. Jonsson             : NEB                                           
  Holger Kruse           : gCP                                           
  Marcel Mueller         : wB97X-3c, vDZP basis set                      
  Hagen Neugebauer       : wr2SCAN, Native XTB                           
  Gianluca Regni         : ADLD/ADEX                                     
  Tobias Risthaus        : pre 6.0 range-separated hybrid DFT and stability analysis
  Lukas Wittmann         : regularized MP2, r2SCAN double-hybrids, wr2SCAN        
                                                                         
We gratefully acknowledge several colleagues who have allowed us to      
interface, adapt or use parts of their codes:                            
  Ed Valeev, F. Pavosevic, A. Kumar             : LibInt (2-el integral package), F12 methods 
  Garnet Chan, S. Sharma, J. Yang, R. Olivares  : DMRG                   
  Ulf Ekstrom                                   : XCFun DFT Library      
  Mihaly Kallay                                 : mrcc  (arbitrary order and MRCC methods)
  Frank Weinhold                                : gennbo (NPA and NBO analysis)           
  Simon Mueller                                 : openCOSMO-RS                            
  Christopher J. Cramer and Donald G. Truhlar   : smd solvation model                     
  S Lehtola, MJT Oliveira, MAL Marques          : LibXC Library                           
  Liviu Ungur et al                             : ANISO software                          


 Your calculation uses the libint2 library for the computation of 2-el integrals
 For citations please refer to: http://libint.valeyev.net

 Your ORCA version has been built with support for libXC version: 7.0.0
 For citations please refer to: https://libxc.gitlab.io

 This ORCA versions uses:
   CBLAS   interface :  Fast vector & matrix operations
   LAPACKE interface :  Fast linear algebra routines
   SCALAPACK package :  Parallel linear algebra routines
   Shared memory     :  Shared parallel matrices
   BLAS/LAPACK       :  OpenBLAS 0.3.29  USE64BITINT DYNAMIC_ARCH NO_AFFINITY Zen SINGLE_THREADED
        Core in use  :  Zen
   Copyright (c) 2011-2014, The OpenBLAS Project


  ***********************************
  * Starting time: Tue Jan  6 16:11:35 2026
  * Host name:     ccc283
  * Process ID:    465494
  * Working dir.:  /lwork/users/ehu/10787808.ccpbs1
  ***********************************

NOTE: MaxCore=1200 MB was set to SCF,MP2,MDCI,CIPSI,MRCI,RASCI and CIS
      => If you want to overwrite this, your respective input block should be placed after the MaxCore statement
Your calculation utilizes the atom-pairwise dispersion correction
with the Becke-Johnson damping scheme (D3BJ)


Warning: RI is on but no J-basis has been assigned. Assigning Def2/J (nothing to worry about!)
================================================================================

----- Orbital basis set information -----
Your calculation utilizes the basis: cc-pVTZ 
       H, B-Ne : Obtained from the ccRepo (grant-hill.group.shef.ac.uk/ccrepo) Feb. 2017
                 T. H. Dunning, Jr., J. Chem. Phys. 90, 1007 (1989)
            He : Obtained from the ccRepo (grant-hill.group.shef.ac.uk/ccrepo) Feb. 2017
                 D. E. Woon, T. H. Dunning, Jr., J. Chem. Phys. 100, 2975 (1994)
  Li-Be, Na-Mg : Obtained from the ccRepo (grant-hill.group.shef.ac.uk/ccrepo) Feb. 2017
                 B. P. Prascher, D. E. Woon, K. A. Peterson, T. H. Dunning, Jr., A. K. Wilson, Theor. Chem. Acc. 128, 69 (2011)
         Al-Ar : Obtained from the ccRepo (grant-hill.group.shef.ac.uk/ccrepo) Feb. 2017
                 D. E. Woon, T. H. Dunning, Jr., J. Chem. Phys. 98, 1358 (1993)
            Ca : Obtained from the Peterson Research Group Website (tyr0.chem.wsu.edu/~kipeters) Feb. 2017
                 J. Koput, K. A. Peterson, J. Phys. Chem. 106, 9595 (2002)
         Sc-Zn : Obtained from the ccRepo (grant-hill.group.shef.ac.uk/ccrepo) Feb. 2017
                 N. B. Balabanov, K. A. Peterson, J. Chem. Phys. 123, 064107 (2005)
                 N. B. Balabanov, K. A. Peterson, J. Chem. Phys. 125, 074110 (2006)
         Ga-Kr : Obtained from the ccRepo (grant-hill.group.shef.ac.uk/ccrepo) Feb. 2017
                 A. K. Wilson, D. E. Woon, K. A. Peterson, T. H. Dunning, Jr., J. Chem. Phys. 110, 7667 (1999)
             Y : Obtained from the ccRepo (grant-hill.group.shef.ac.uk/ccrepo) Feb. 2017
                 K. A. Peterson, D. Figgen, M. Dolg, H. Stoll, J. Chem. Phys. 126, 124101 (2007)
        Ag, Au : Obtained from the Peterson Research Group Website (tyr0.chem.wsu.edu/~kipeters) Feb. 2017
                 K. A. Peterson, C. Puzzarini, Theor. Chem. Acc. 114, 283 (2005)

----- AuxJ basis set information -----
Your calculation utilizes the auxiliary basis: def2/J
   H-Rn: F. Weigend, Phys. Chem. Chem. Phys. 8, 1057 (2006).
   Fr-Lr: K. Eichkorn, F. Weigend, O. Treutler, R. Ahlrichs; Theor. Chem. Acc. 97, 119 (1997).

================================================================================
                                        WARNINGS
                       Please study these warnings very carefully!
================================================================================


WARNING: Geometry Optimization
  ===> : Switching off AutoStart
         For restart on a previous wavefunction, please use MOREAD

================================================================================
                                       INPUT FILE
================================================================================
NAME = scale_1.2.inp.ap
|  1> !wb97x-d3bj cc-pvtz TightSCF TightOpt CPCM(THF) Freq PAL8
|  2> %maxcore 1200
|  3> 
|  4> %cpcm
|  5> 	scale_gauss 1.2
|  6> end
|  7> %freq
|  8>  temp 313.15
|  9> end
| 10> %elprop
| 11> 	dipole true
| 12> end
| 13> # Geometry Calculation & Freq
| 14> *xyz 0 1
| 15>  C                 -4.92111766    0.68716373    0.56408038
| 16>  C                 -3.44090951    0.86633244    0.14489740
| 17>  C                 -4.36227944    2.86463509    0.09729524
| 18>  C                 -5.49677464    1.91149054    0.47849171
| 19>  H                 -5.40471501   -0.22909711    0.83147460
| 20>  H                 -6.52752178    2.15594323    0.62916757
| 21>  C                 -3.12824154    2.21319415    0.77152625
| 22>  H                 -2.18646518    2.64237500    0.49993632
| 23>  H                 -3.16529363    2.20595147    1.84086001
| 24>  C                 -3.55545781    1.19385875   -1.35491316
| 25>  H                 -2.69836022    1.01145026   -1.96892528
| 26>  C                 -3.91438755    2.67445778   -1.35728605
| 27>  H                 -3.09838793    3.36032567   -1.45018305
| 28>  H                 -2.81676155    0.03575168    0.40077808
| 29>  H                 -4.59048350    3.87850612    0.35202731
| 30>  C                 -4.82060552    0.48580019   -1.87313958
| 31>  H                 -5.06851382   -0.54435368   -1.72406080
| 32>  C                 -5.60523618    1.41986168   -2.52073345
| 33>  H                 -6.57492474    1.23074862   -2.93163532
| 34>  C                 -4.86979594    2.78952868   -2.55641272
| 35>  H                 -4.31630418    2.84281451   -3.47058310
| 36>  H                 -5.50552199    3.64802306   -2.49525884
| 37> *
| 38> 
| 39>                          ****END OF INPUT****
================================================================================

                       *****************************
                       * Geometry Optimization Run *
                       *****************************

Geometry optimization settings:
Update method            Update   .... BFGS
Choice of coordinates    CoordSys .... (2022) Redundant Internals
Initial Hessian          InHess   .... Almloef's Model
Max. no of cycles        MaxIter  .... 66

Convergence Tolerances:
Energy Change            TolE     ....  1.0000e-06 Eh
Max. Gradient            TolMAXG  ....  1.0000e-04 Eh/bohr
RMS Gradient             TolRMSG  ....  3.0000e-05 Eh/bohr
Max. Displacement        TolMAXD  ....  1.0000e-03 bohr
RMS Displacement         TolRMSD  ....  6.0000e-04 bohr
Strict Convergence                .... False

------------------------------------------------------------------------------
                        ORCA OPTIMIZATION COORDINATE SETUP
------------------------------------------------------------------------------

The optimization will be done in redundant internal coordinates (2022)
Making redundant internal coordinates   ...  (2022 redundants) done
Evaluating the initial hessian          ...  (Almloef) done
Evaluating the coordinates              ...  done
Calculating the B-matrix                .... done
Calculating the G-matrix                .... done
The number of degrees of freedom        ....  136

    -----------------------------------------------------------------
                    Redundant Internal Coordinates


    -----------------------------------------------------------------
         Definition                    Initial Value    Approx d2E/dq
    -----------------------------------------------------------------
      1. B(C   1,C   0)                  1.5488         0.348624   
      2. B(C   3,C   0)                  1.3556         0.708930   
      3. B(C   3,C   2)                  1.5300         0.373586   
      4. B(H   4,C   0)                  1.0700         0.387554   
      5. B(H   5,C   3)                  1.0700         0.387554   
      6. B(C   6,C   2)                  1.5498         0.347394   
      7. B(C   6,C   1)                  1.5180         0.390347   
      8. B(H   7,C   6)                  1.0700         0.387554   
      9. B(H   8,C   6)                  1.0700         0.387554   
     10. B(C   9,C   1)                  1.5394         0.360863   
     11. B(H  10,C   9)                  1.0700         0.387554   
     12. B(C  11,C   9)                  1.5235         0.382622   
     13. B(C  11,C   2)                  1.5338         0.368379   
     14. B(H  12,C  11)                  1.0700         0.387554   
     15. B(H  13,C   1)                  1.0700         0.387554   
     16. B(H  14,C   2)                  1.0700         0.387554   
     17. B(C  15,C   9)                  1.5396         0.360571   
     18. B(H  16,C  15)                  1.0700         0.387554   
     19. B(C  17,C  15)                  1.3811         0.645513   
     20. B(H  18,C  17)                  1.0700         0.387554   
     21. B(C  19,C  17)                  1.5550         0.340750   
     22. B(C  19,C  11)                  1.5375         0.363403   
     23. B(H  20,C  19)                  1.0700         0.387554   
     24. B(H  21,C  19)                  1.0700         0.387554   
     25. A(C   1,C   0,H   4)          126.7722         0.324551   
     26. A(C   3,C   0,H   4)          126.6726         0.365600   
     27. A(C   1,C   0,C   3)          106.5153         0.401238   
     28. A(C   6,C   1,C   9)          103.2219         0.363929   
     29. A(C   0,C   1,C   6)          100.8221         0.361791   
     30. A(C   0,C   1,H  13)          113.7632         0.324551   
     31. A(C   9,C   1,H  13)          116.2025         0.326397   
     32. A(C   0,C   1,C   9)          102.5435         0.356984   
     33. A(C   6,C   1,H  13)          118.0247         0.330655   
     34. A(C  11,C   2,H  14)          113.9246         0.327507   
     35. A(C   3,C   2,H  14)          111.8906         0.328266   
     36. A(C   3,C   2,C   6)          102.7196         0.358878   
     37. A(C   6,C   2,H  14)          117.6809         0.324362   
     38. A(C   6,C   2,C  11)           97.3505         0.358022   
     39. A(C   3,C   2,C  11)          112.0592         0.362485   
     40. A(C   0,C   3,C   2)          105.2775         0.406163   
     41. A(C   2,C   3,H   5)          127.3774         0.328266   
     42. A(C   0,C   3,H   5)          127.3378         0.365600   
     43. A(H   7,C   6,H   8)          106.6699         0.297665   
     44. A(C   2,C   6,H   8)          114.2080         0.324362   
     45. A(C   1,C   6,H   8)          113.5402         0.330655   
     46. A(C   2,C   6,H   7)          114.9495         0.324362   
     47. A(C   1,C   6,H   7)          115.6189         0.330655   
     48. A(C   1,C   6,C   2)           91.6822         0.361573   
     49. A(C   1,C   9,C  15)          106.9314         0.359036   
     50. A(H  10,C   9,C  11)          110.7017         0.329564   
     51. A(C   1,C   9,C  11)          103.0510         0.362688   
     52. A(C   1,C   9,H  10)          117.5939         0.326397   
     53. A(C  11,C   9,C  15)          104.6445         0.362638   
     54. A(H  10,C   9,C  15)          112.7472         0.326354   
     55. A(C   9,C  11,H  12)          116.3222         0.329564   
     56. A(C   2,C  11,H  12)          103.0353         0.327507   
     57. A(C   2,C  11,C   9)          100.8256         0.363968   
     58. A(H  12,C  11,C  19)          110.9899         0.326774   
     59. A(C   9,C  11,C  19)          102.7296         0.363123   
     60. A(C   2,C  11,C  19)          123.2909         0.360780   
     61. A(H  16,C  15,C  17)          125.7906         0.359795   
     62. A(C   9,C  15,C  17)          108.2778         0.397025   
     63. A(C   9,C  15,H  16)          125.8911         0.326354   
     64. A(H  18,C  17,C  19)          125.1322         0.323336   
     65. A(C  15,C  17,C  19)          109.7406         0.393108   
     66. A(C  15,C  17,H  18)          125.1265         0.359795   
     67. A(H  20,C  19,H  21)          108.4339         0.297665   
     68. A(C  17,C  19,H  21)          115.1118         0.323336   
     69. A(C  11,C  19,H  21)          112.6232         0.326774   
     70. A(C  17,C  19,H  20)          107.9454         0.323336   
     71. A(C  11,C  19,H  20)          110.4029         0.326774   
     72. A(C  11,C  19,C  17)          102.1264         0.356026   
     73. D(C   9,C   1,C   0,H   4)    109.5788         0.010000   
     74. D(C   6,C   1,C   0,H   4)   -144.0959         0.010000   
     75. D(H  13,C   1,C   0,C   3)    165.4505         0.010000   
     76. D(C   6,C   1,C   0,C   3)     38.0893         0.010000   
     77. D(C   9,C   1,C   0,C   3)    -68.2360         0.010000   
     78. D(C   2,C   3,C   0,H   4)    178.6036         0.035474   
     79. D(C   0,C   3,C   2,H  14)   -158.5439         0.010437   
     80. D(H   5,C   3,C   0,H   4)     -2.3266         0.035474   
     81. D(C   0,C   3,C   2,C   6)    -31.3916         0.010437   
     82. D(C   0,C   3,C   2,C  11)     72.0813         0.010437   
     83. D(H   5,C   3,C   2,C   6)    149.5391         0.010437   
     84. D(H   5,C   3,C   0,C   1)    175.4910         0.035474   
     85. D(C   2,C   3,C   0,C   1)     -3.5788         0.035474   
     86. D(H   5,C   3,C   2,C  11)   -106.9880         0.010437   
     87. D(C   2,C   6,C   1,C   0)    -52.3189         0.012113   
     88. D(H   7,C   6,C   2,H  14)    -65.8983         0.010000   
     89. D(H   7,C   6,C   2,C  11)     56.0675         0.010000   
     90. D(H   7,C   6,C   2,C   3)    170.7331         0.010000   
     91. D(C   1,C   6,C   2,C  11)    -63.3228         0.010000   
     92. D(H   7,C   6,C   1,H  13)     64.3527         0.012113   
     93. D(H   7,C   6,C   1,C   9)    -65.3550         0.012113   
     94. D(C   1,C   6,C   2,H  14)    174.7114         0.010000   
     95. D(H   7,C   6,C   1,C   0)   -171.1412         0.012113   
     96. D(C   2,C   6,C   1,H  13)   -176.8250         0.012113   
     97. D(C   2,C   6,C   1,C   9)     53.4673         0.012113   
     98. D(C   1,C   6,C   2,C   3)     51.3428         0.010000   
     99. D(C  11,C   9,C   1,C   6)    -24.2391         0.010444   
    100. D(H  10,C   9,C   1,H  13)    -33.0024         0.010444   
    101. D(H  10,C   9,C   1,C   6)     97.8071         0.010444   
    102. D(C  11,C   9,C   1,C   0)     80.2304         0.010444   
    103. D(H  10,C   9,C   1,C   0)   -157.7234         0.010444   
    104. D(C  11,C   9,C   1,H  13)   -155.0486         0.010444   
    105. D(H  12,C  11,C   9,C  15)   -154.1026         0.011660   
    106. D(H  12,C  11,C   9,C   1)     94.2090         0.011660   
    107. D(C   2,C  11,C   9,C  15)     95.3610         0.011660   
    108. D(C   2,C  11,C   9,H  10)   -142.9044         0.011660   
    109. D(C   2,C  11,C   9,C   1)    -16.3274         0.011660   
    110. D(H  12,C  11,C   2,H  14)     54.6267         0.010854   
    111. D(H  12,C  11,C   2,C   6)    -70.0994         0.010854   
    112. D(H  12,C  11,C   2,C   3)   -177.0660         0.010854   
    113. D(C   9,C  11,C   2,H  14)    175.1351         0.010854   
    114. D(H  12,C  11,C   9,H  10)    -32.3681         0.011660   
    115. D(C   9,C  11,C   2,C   6)     50.4090         0.010854   
    116. D(C   9,C  11,C   2,C   3)    -56.5576         0.010854   
    117. D(C  17,C  15,C   9,H  10)   -101.8637         0.010000   
    118. D(C  17,C  15,C   9,C   1)    127.3936         0.010000   
    119. D(H  16,C  15,C   9,C  11)   -159.2711         0.010000   
    120. D(H  16,C  15,C   9,H  10)     80.3478         0.010000   
    121. D(H  16,C  15,C   9,C   1)    -50.3950         0.010000   
    122. D(C  19,C  17,C  15,H  16)   -178.5233         0.028985   
    123. D(C  19,C  17,C  15,C   9)      3.6854         0.028985   
    124. D(H  18,C  17,C  15,H  16)      1.7542         0.028985   
    125. D(H  18,C  17,C  15,C   9)   -176.0372         0.028985   
    126. D(H  20,C  19,C  17,C  15)     92.3260         0.010000   
    127. D(C  11,C  19,C  17,H  18)    155.6637         0.010000   
    128. D(C  11,C  19,C  17,C  15)    -24.0588         0.010000   
    129. D(H  20,C  19,C  11,H  12)     44.3769         0.010581   
    130. D(H  20,C  19,C  11,C   9)    -80.6227         0.010581   
    131. D(H  20,C  19,C  11,C   2)    167.1245         0.010581   
    132. D(C  17,C  19,C  11,H  12)    158.9690         0.010581   
    133. D(C  17,C  19,C  11,C   9)     33.9694         0.010581   
    134. D(H  20,C  19,C  17,H  18)    -87.9515         0.010000   
    135. D(C  17,C  19,C  11,C   2)    -78.2834         0.010581   
    136. D(H  21,C  19,C  17,C  15)   -146.4178         0.010000   
    -----------------------------------------------------------------

Number of atoms                         .... 22
Number of degrees of freedom            .... 136


         *************************************************************
         *                GEOMETRY OPTIMIZATION CYCLE   1            *
         *************************************************************
---------------------------------
CARTESIAN COORDINATES (ANGSTROEM)
---------------------------------
  C     -4.921118    0.687164    0.564080
  C     -3.440910    0.866332    0.144897
  C     -4.362279    2.864635    0.097295
  C     -5.496775    1.911491    0.478492
  H     -5.404715   -0.229097    0.831475
  H     -6.527522    2.155943    0.629168
  C     -3.128242    2.213194    0.771526
  H     -2.186465    2.642375    0.499936
  H     -3.165294    2.205951    1.840860
  C     -3.555458    1.193859   -1.354913
  H     -2.698360    1.011450   -1.968925
  C     -3.914388    2.674458   -1.357286
  H     -3.098388    3.360326   -1.450183
  H     -2.816762    0.035752    0.400778
  H     -4.590484    3.878506    0.352027
  C     -4.820606    0.485800   -1.873140
  H     -5.068514   -0.544354   -1.724061
  C     -5.605236    1.419862   -2.520733
  H     -6.574925    1.230749   -2.931635
  C     -4.869796    2.789529   -2.556413
  H     -4.316304    2.842815   -3.470583
  H     -5.505522    3.648023   -2.495259

----------------------------
CARTESIAN COORDINATES (A.U.)
----------------------------
  NO LB      ZA    FRAG     MASS         X           Y           Z
   0 C     6.0000    0    12.011   -9.299565    1.298551    1.065957
   1 C     6.0000    0    12.011   -6.502377    1.637131    0.273816
   2 C     6.0000    0    12.011   -8.243513    5.413376    0.183861
   3 C     6.0000    0    12.011  -10.387399    3.612194    0.904218
   4 H     1.0000    0     1.008  -10.213431   -0.432931    1.571259
   5 H     1.0000    0     1.008  -12.335228    4.074142    1.188954
   6 C     6.0000    0    12.011   -5.911520    4.182331    1.457973
   7 H     1.0000    0     1.008   -4.131820    4.993365    0.944743
   8 H     1.0000    0     1.008   -5.981538    4.168644    3.478721
   9 C     6.0000    0    12.011   -6.718842    2.256066   -2.560415
  10 H     1.0000    0     1.008   -5.099162    1.911364   -3.720730
  11 C     6.0000    0    12.011   -7.397120    5.053993   -2.564899
  12 H     1.0000    0     1.008   -5.855105    6.350095   -2.740449
  13 H     1.0000    0     1.008   -5.322908    0.067561    0.757361
  14 H     1.0000    0     1.008   -8.674757    7.329314    0.665235
  15 C     6.0000    0    12.011   -9.109624    0.918029   -3.539721
  16 H     1.0000    0     1.008   -9.578103   -1.028679   -3.258003
  17 C     6.0000    0    12.011  -10.592361    2.683150   -4.763496
  18 H     1.0000    0     1.008  -12.424807    2.325778   -5.539988
  19 C     6.0000    0    12.011   -9.202581    5.271445   -4.830920
  20 H     1.0000    0     1.008   -8.156633    5.372141   -6.558452
  21 H     1.0000    0     1.008  -10.403929    6.893765   -4.715356

--------------------------------
INTERNAL COORDINATES (ANGSTROEM)
--------------------------------
 C      0   0   0     0.000000000000     0.00000000     0.00000000
 C      1   0   0     1.548816310829     0.00000000     0.00000000
 C      2   1   0     2.201000225930    73.19054642     0.00000000
 C      1   2   3     1.355611491815   106.51528705     2.50613295
 H      1   2   3     1.069999996605   126.77216344   180.32087399
 H      4   1   2     1.069999999558   127.33784017   175.49099056
 C      2   1   3     1.518045269740   100.82210675    35.58319781
 H      7   2   1     1.070000002028   115.61893021   188.85880743
 H      7   2   1     1.070000001898   113.54016331    65.08501494
 C      2   1   3     1.539424084735   102.54353227   289.25788448
 H     10   2   1     1.070000009119   117.59393568   202.27656929
 C     10   2   1     1.523486027668   103.05098095    80.23035654
 H     12  10   2     1.069999997655   116.32217626    94.20900188
 H      2   1   3     1.069999998716   113.76317182   162.94434990
 H      3   2   1     1.069999993439   160.80614515   111.32846618
 C     10   2   1     1.539644203994   106.93137895   330.24075999
 H     16  10   2     1.070000001744   125.89107790   309.60503061
 C     16  10   2     1.381120545128   108.27784789   127.39357329
 H     18  16  10     1.069999999826   125.12651845   183.96284114
 C     12  10   2     1.537514642016   102.72958733   215.63968447
 H     20  12  10     1.069999996138   110.40286163   279.37731270
 H     20  12  10     1.070000003822   112.62318752   158.01121010

---------------------------
INTERNAL COORDINATES (A.U.)
---------------------------
 C      0   0   0     0.000000000000     0.00000000     0.00000000
 C      1   0   0     2.926838659218     0.00000000     0.00000000
 C      2   1   0     4.159287647706    73.19054642     0.00000000
 C      1   2   3     2.561734463526   106.51528705     2.50613295
 H      1   2   3     2.022006956879   126.77216344   180.32087399
 H      4   1   2     2.022006962460   127.33784017   175.49099056
 C      2   1   3     2.868689818703   100.82210675    35.58319781
 H      7   2   1     2.022006967127   115.61893021   188.85880743
 H      7   2   1     2.022006966883   113.54016331    65.08501494
 C      2   1   3     2.909089924112   102.54353227   289.25788448
 H     10   2   1     2.022006980528   117.59393568   202.27656929
 C     10   2   1     2.878971361149   103.05098095    80.23035654
 H     12  10   2     2.022006958865   116.32217626    94.20900188
 H      2   1   3     2.022006960869   113.76317182   162.94434990
 H      3   2   1     2.022006950898   160.80614515   111.32846618
 C     10   2   1     2.909505889229   106.93137895   330.24075999
 H     16  10   2     2.022006966591   125.89107790   309.60503061
 C     16  10   2     2.609939588224   108.27784789   127.39357329
 H     18  16  10     2.022006962966   125.12651845   183.96284114
 C     12  10   2     2.905481600305   102.72958733   215.63968447
 H     20  12  10     2.022006955998   110.40286163   279.37731270
 H     20  12  10     2.022006970518   112.62318752   158.01121010

---------------------
BASIS SET INFORMATION
---------------------
There are 2 groups of distinct atoms

 Group   1 Type C   : 18s5p2d1f contracted to 4s3p2d1f pattern {8811/311/11/1}
 Group   2 Type H   : 5s2p1d contracted to 3s2p1d pattern {311/11/1}

Atom   0C    basis set group =>   1
Atom   1C    basis set group =>   1
Atom   2C    basis set group =>   1
Atom   3C    basis set group =>   1
Atom   4H    basis set group =>   2
Atom   5H    basis set group =>   2
Atom   6C    basis set group =>   1
Atom   7H    basis set group =>   2
Atom   8H    basis set group =>   2
Atom   9C    basis set group =>   1
Atom  10H    basis set group =>   2
Atom  11C    basis set group =>   1
Atom  12H    basis set group =>   2
Atom  13H    basis set group =>   2
Atom  14H    basis set group =>   2
Atom  15C    basis set group =>   1
Atom  16H    basis set group =>   2
Atom  17C    basis set group =>   1
Atom  18H    basis set group =>   2
Atom  19C    basis set group =>   1
Atom  20H    basis set group =>   2
Atom  21H    basis set group =>   2
---------------------------------
AUXILIARY/J BASIS SET INFORMATION
---------------------------------
There are 2 groups of distinct atoms

 Group   1 Type C   : 12s5p4d2f1g contracted to 6s4p3d1f1g pattern {711111/2111/211/2/1}
 Group   2 Type H   : 5s2p1d contracted to 3s1p1d pattern {311/2/1}

Atom   0C    basis set group =>   1
Atom   1C    basis set group =>   1
Atom   2C    basis set group =>   1
Atom   3C    basis set group =>   1
Atom   4H    basis set group =>   2
Atom   5H    basis set group =>   2
Atom   6C    basis set group =>   1
Atom   7H    basis set group =>   2
Atom   8H    basis set group =>   2
Atom   9C    basis set group =>   1
Atom  10H    basis set group =>   2
Atom  11C    basis set group =>   1
Atom  12H    basis set group =>   2
Atom  13H    basis set group =>   2
Atom  14H    basis set group =>   2
Atom  15C    basis set group =>   1
Atom  16H    basis set group =>   2
Atom  17C    basis set group =>   1
Atom  18H    basis set group =>   2
Atom  19C    basis set group =>   1
Atom  20H    basis set group =>   2
Atom  21H    basis set group =>   2


           ************************************************************
           *        Program running with 8 parallel MPI-processes     *
           *              working on a common directory               *
           ************************************************************
------------------------------------------------------------------------------
                             ORCA STARTUP CALCULATIONS
                           -- RI-GTO INTEGRALS CHOSEN --
------------------------------------------------------------------------------
------------------------------------------------------------------------------
                   ___                                                        
                  /   \      - P O W E R E D   B Y -                         
                 /     \                                                     
                 |  |  |   _    _      __       _____    __    __             
                 |  |  |  | |  | |    /  \     |  _  \  |  |  /  |          
                  \  \/   | |  | |   /    \    | | | |  |  | /  /          
                 / \  \   | |__| |  /  /\  \   | |_| |  |  |/  /          
                |  |  |   |  __  | /  /__\  \  |    /   |      \           
                |  |  |   | |  | | |   __   |  |    \   |  |\   \          
                \     /   | |  | | |  |  |  |  | |\  \  |  | \   \       
                 \___/    |_|  |_| |__|  |__|  |_| \__\ |__|  \__/        
                                                                              
                      - O R C A' S   B I G   F R I E N D -                    
                                      &                                       
                       - I N T E G R A L  F E E D E R -                       
                                                                              
 v1 FN, 2020, v2 2021, v3 2022-2024                                           
------------------------------------------------------------------------------


----------------------
SHARK INTEGRAL PACKAGE
----------------------

Number of atoms                             ...     22
Number of basis functions                   ...    528
Number of shells                            ...    232
Maximum angular momentum                    ...      3
Integral batch strategy                     ... SHARK/LIBINT Hybrid
RI-J (if used) integral strategy            ... SPLIT-RIJ (Revised 2003 algorithm where possible)
Printlevel                                  ...      1
Contraction scheme used                     ... PARTIAL GENERAL contraction
Prescreening option                         ... SCHWARTZ
   Thresh                                   ... 2.500e-11
   Tcut                                     ... 2.500e-12
   Tpresel                                  ... 2.500e-12 
Coulomb Range Separation                    ... NOT USED
Exchange Range Separation                   ... Long Range
   Mu parameter                             ... 3.000e-01
   Scaling (regular/separated)              ... 1.670e-01 8.330e-01
Robust (split-)RI terms used:
  metric    (central integrals)             ... YES
  density   (r.h.s.  integrals)             ... YES
  potential (l.h.s.  integrals)             ... YES
Multipole approximations                    ... NOT USED
Finite Nucleus Model                        ... NOT USED
CABS basis                                  ... NOT available
Auxiliary Coulomb fitting basis             ... AVAILABLE
   # of basis functions in Aux-J            ...    622
   # of shells in Aux-J                     ...    210
   Maximum angular momentum in Aux-J        ...      4
Auxiliary J/K fitting basis                 ... NOT available
Auxiliary Correlation fitting basis         ... NOT available
Auxiliary 'external' fitting basis          ... NOT available

Checking pre-screening integrals            ... done (  0.0 sec) Dimension = 232
Save PGC pre-screening integrals            ... done (  0.0 sec) Dimension = 232
Calculate PGC overlap integrals             ... done (  0.0 sec) Dimension = 172
Calculating pre-screening integrals (ORCA)  ... done (  0.1 sec) Dimension = 172
Shell pair information
Shell pair cut-off parameter TPreSel        ...   2.5e-12
Total number of shell pairs                 ...     27028
Shell pairs after pre-screening             ...     21940
Total number of primitive shell pairs       ...     38292
Primitive shell pairs kept                  ...     27834
          la=0 lb=0:   6366 shell pairs
          la=1 lb=0:   6351 shell pairs
          la=1 lb=1:   1401 shell pairs
          la=2 lb=0:   3563 shell pairs
          la=2 lb=1:   1602 shell pairs
          la=2 lb=2:    483 shell pairs
          la=3 lb=0:   1274 shell pairs
          la=3 lb=1:    529 shell pairs
          la=3 lb=2:    316 shell pairs
          la=3 lb=3:     55 shell pairs

Checking whether 4 symmetric matrices of dimension 528 fit in memory
:Max Core in MB      =   1200.00
 MB in use           =     28.25
 MB left             =   1171.75
 MB needed           =      4.26
 Data fit in memory  = YES
Calculating RI/J V-Matrix + Cholesky decomp.... done (  0.4 sec)
Calculating Nuclear repulsion               ... done (  0.0 sec) ENN=    542.384374305952 Eh

Diagonalization of the overlap matrix:
Smallest eigenvalue                        ... 6.248e-05
Time for diagonalization                   ...    0.044 sec
Threshold for overlap eigenvalues          ... 1.000e-07
Number of eigenvalues below threshold      ... 0
Time for construction of square roots      ...    0.071 sec
Total time needed                          ...    0.118 sec

-------------------
DFT GRID GENERATION
-------------------

General Integration Accuracy     IntAcc      ... 4.388
Radial Grid Type                 RadialGrid  ... OptM3 with GC (2021)
Angular Grid (max. ang.)         AngularGrid ... 4 (Lebedev-302)
Angular grid pruning method      GridPruning ... 4 (adaptive)
Weight generation scheme         WeightScheme... mBecke (2022)
Basis function cutoff            BFCut       ... 1.0000e-11
Integration weight cutoff        WCut        ... 1.0000e-14
Partially contracted basis set               ... off
Rotationally invariant grid construction     ... off
Angular grids for H and He will be reduced by one unit

Total number of grid points                  ...    97494
Total number of batches                      ...     1534
Average number of points per batch           ...       63
Average number of grid points per atom       ...     4432

---------------------
SHARK GRID GENERATION
---------------------

General Integration Accuracy     IntAcc      ... 4.388
Radial Grid Type                 RadialGrid  ... OptM3 with GC (2021)
Angular Grid (max. ang.)         AngularGrid ... 4 (Lebedev-302)
Angular grid pruning method      GridPruning ... 4 (adaptive)
Weight generation scheme         WeightScheme... mBecke (2022)
Basis function cutoff            BFCut       ... 1.0000e-11
Integration weight cutoff        WCut        ... 1.0000e-14
Partially contracted basis set               ... off
Rotationally invariant grid construction     ... off
Angular grids for H and He will be reduced by one unit
Steep s-basis detected: some atoms will have their radial
                        grid points doubled.

Total number of grid points                  ...   157084
Total number of batches                      ...     2465
Average number of points per batch           ...       63
Average number of grid points per atom       ...     7140

--------------------
COSX GRID GENERATION
--------------------

GRIDX 1
-------
General Integration Accuracy     IntAcc      ... 3.816
Radial Grid Type                 RadialGrid  ... OptM3 with GC (2021)
Angular Grid (max. ang.)         AngularGrid ... 1 (Lebedev-50)
Angular grid pruning method      GridPruning ... 4 (adaptive)
Weight generation scheme         WeightScheme... mBecke (2022)
Basis function cutoff            BFCut       ... 1.0000e-11
Integration weight cutoff        WCut        ... 1.0000e-14
Partially contracted basis set               ... on
Rotationally invariant grid construction     ... off
Angular grids for H and He will be reduced by one unit

Total number of grid points                  ...    12445
Total number of batches                      ...      110
Average number of points per batch           ...      113
Average number of grid points per atom       ...      566
UseSFitting                                  ... on

GRIDX 2
-------
General Integration Accuracy     IntAcc      ... 4.020
Radial Grid Type                 RadialGrid  ... OptM3 with GC (2021)
Angular Grid (max. ang.)         AngularGrid ... 2 (Lebedev-110)
Angular grid pruning method      GridPruning ... 4 (adaptive)
Weight generation scheme         WeightScheme... mBecke (2022)
Basis function cutoff            BFCut       ... 1.0000e-11
Integration weight cutoff        WCut        ... 1.0000e-14
Partially contracted basis set               ... on
Rotationally invariant grid construction     ... off
Angular grids for H and He will be reduced by one unit

Total number of grid points                  ...    26375
Total number of batches                      ...      219
Average number of points per batch           ...      120
Average number of grid points per atom       ...     1199
UseSFitting                                  ... on

GRIDX 3
-------
General Integration Accuracy     IntAcc      ... 4.338
Radial Grid Type                 RadialGrid  ... OptM3 with GC (2021)
Angular Grid (max. ang.)         AngularGrid ... 3 (Lebedev-194)
Angular grid pruning method      GridPruning ... 4 (adaptive)
Weight generation scheme         WeightScheme... mBecke (2022)
Basis function cutoff            BFCut       ... 1.0000e-11
Integration weight cutoff        WCut        ... 1.0000e-14
Partially contracted basis set               ... on
Rotationally invariant grid construction     ... off
Angular grids for H and He will be reduced by one unit

Total number of grid points                  ...    57673
Total number of batches                      ...      461
Average number of points per batch           ...      125
Average number of grid points per atom       ...     2622
UseSFitting                                  ... on
Grids setup in   3.1 sec
Initializing property integral containers    ... done (  0.1 sec)

SHARK setup successfully completed in   4.8 seconds

Maximum memory used throughout the entire STARTUP-calculation: 59.2 MB


           ************************************************************
           *        Program running with 8 parallel MPI-processes     *
           *              working on a common directory               *
           ************************************************************
-------------------------------------------------------------------------------
                                 ORCA GUESS
                   Start orbitals & Density for SCF / CASSCF
-------------------------------------------------------------------------------

------------
SCF SETTINGS
------------
Hamiltonian:
 Density Functional     Method          .... DFT(GTOs)
 Exchange Functional    Exchange        .... WB97X-V
 Correlation Functional Correlation     .... WB97X-V
 Gradients option       PostSCFGGA      .... off
 Hybrid DFT is turned on
   Fraction HF Exchange ScalHFX         ....  0.167000
   Scaling of DF-GGA-X  ScalDFX         ....  0.000000
   Scaling of DF-GGA-C  ScalDFC         ....  1.000000
   Scaling of DF-LDA-C  ScalLDAC        ....  1.000000
   Perturbative correction              ....  0.000000
 Long-range corrected/Screened/Range-Separated Hybrid DFT is turned on
   Amount of maximum screened exact exchange              ....  0.833000
   Range separation parameter mu (erf(mu*r12)/r12)        ....  0.300000
 RI-approximation to the Coulomb term is turned on
   Number of AuxJ basis functions       .... 622
   RIJ-COSX (HFX calculated with COS-X)).... on


General Settings:
 Integral files         IntName         .... scale_1.2.inp
 Hartree-Fock type      HFTyp           .... RHF
 Total Charge           Charge          ....    0
 Multiplicity           Mult            ....    1
 Number of Electrons    NEL             ....   72
 Basis Dimension        Dim             ....  468
 Nuclear Repulsion      ENuc            ....    542.3843743060 Eh

Convergence Acceleration:
 AO-DIIS                CNVDIIS         .... on
   Start iteration      DIISMaxIt       ....    12
   Startup error        DIISStart       ....  0.200000
   # of expansion vecs  DIISMaxEq       ....     5
   Bias factor          DIISBfac        ....   1.050
   Max. coefficient     DIISMaxC        ....  10.000
 MO-DIIS                CNVKDIIS        .... off
 Trust-Rad. Augm. Hess. CNVTRAH         .... auto
   Auto Start mean grad. ratio tolernc. ....  1.125000
   Auto Start start iteration           ....    50
   Auto Start num. interpolation iter.  ....    10
   Max. Number of Micro iterations      ....    24
   Max. Number of Macro iterations      .... Maxiter - #DIIS iter
   Number of Davidson start vectors     ....     2
   Converg. threshold    (grad. norm)   ....   1.000e-05
   Grad. Scal. Fac. for Micro threshold ....   0.100
   Minimum threshold for Micro iter.    ....   1.000e-02
   NR start threshold (gradient norm)   ....   1.000e-04
   Initial trust radius                 ....   0.400
   Minimum AH scaling param. (alpha)    ....   1.000
   Maximum AH scaling param. (alpha)    .... 1000.000
   Quad. conv. algorithm                .... NR
   White noise on init. David. guess    .... on
   Maximum white noise                  ....   0.010
   Pseudo random numbers                .... off
   Inactive MOs                         .... canonical
   Orbital update algorithm             .... Taylor
   Preconditioner                       .... Diag
   Full preconditioner red. dimension   ....   250
 SOSCF                 CNVSOSCF           .... on
   Start iteration     SOSCFMaxIt         ....   150
   Startup grad/error  SOSCFStart         ....  0.003300
   Hessian update      SOSCFHessUp        .... L-BFGS
   Autom. constraints  SOSCFAutoConstrain .... off
 Level Shifting         CNVShift        .... on
   Level shift para.    LevelShift      ....    0.2500
   Turn off err/grad.   ShiftErr        ....    0.0010
 Zerner damping         CNVZerner       .... off
 Static damping         CNVDamp         .... on
   Fraction old density DampFac         ....    0.7000
   Max. Damping (<1)    DampMax         ....    0.9800
   Min. Damping (>=0)   DampMin         ....    0.0000
   Turn off err/grad.   DampErr         ....    0.1000

SCF Procedure:
 Maximum # iterations   MaxIter         ....   125
 SCF integral mode      SCFMode         .... Direct
   Integral package                     .... SHARK and LIBINT hybrid scheme
 Reset frequency        DirectResetFreq ....    20
 Integral Threshold     Thresh          ....  2.500e-11 Eh
 Primitive CutOff       TCut            ....  2.500e-12 Eh

Convergence Tolerance:
 Convergence Check Mode ConvCheckMode   .... Total+1el-Energy
 Convergence forced     ConvForced      .... 0
 Energy Change          TolE            ....  1.000e-08 Eh
 1-El. energy change                    ....  1.000e-05 Eh
 Orbital Gradient       TolG            ....  1.000e-05
 Orbital Rotation angle TolX            ....  1.000e-05
 DIIS Error             TolErr          ....  5.000e-07

------------------------------
INITIAL GUESS: MODEL POTENTIAL
------------------------------
Loading Hartree-Fock densities                     ... done
Calculating cut-offs                               ... done
Initializing the effective Hamiltonian             ... done
Setting up the integral package (SHARK)            ... done
Starting the Coulomb interaction                   ... done (   0.5 sec)
Making the grid                                    ... done (   0.1 sec)
Mapping shells                                     ... done
Starting the XC term evaluation                    ... done (   0.3 sec)
  promolecular density results
     # of electrons  =     71.990126973
     EX              =    -36.476823931
     EC              =     -2.930201276
     EX+EC           =    -39.407025207
Transforming the Hamiltonian                       ... done (   0.0 sec)
Diagonalizing the Hamiltonian                      ... done (   0.0 sec)
Back transforming the eigenvectors                 ... done (   0.0 sec)
Now organizing SCF variables                       ... done
                      ------------------
                      INITIAL GUESS DONE (   1.0 sec)
                      ------------------
             **** ENERGY FILE WAS UPDATED (scale_1.2.inp.en.tmp) ****
Finished Guess after   1.9 sec
Maximum memory used throughout the entire GUESS-calculation: 37.1 MB


           ************************************************************
           *        Program running with 8 parallel MPI-processes     *
           *              working on a common directory               *
           ************************************************************

-------------------------------------------------------------------------------------------
                                      ORCA LEAN-SCF
                              memory conserving SCF solver
-------------------------------------------------------------------------------------------

--------------------
CPCM SOLVATION MODEL
--------------------
CPCM parameters:
  Epsilon                                         ...       7.5650
  Refrac                                          ...       1.4050
  Rsolv                                           ...       1.3000
  Surface type                                    ... GAUSSIAN VDW
  Discretization scheme                           ... Constant charge density
    Threshold for H atoms                         ...       5.0000 (charges/Ang^2)
    Threshold for non-H atoms                     ...       5.0000 (charges/Ang^2)
  Epsilon function type                           ...         CPCM
Solvent:                                          ... TETRAHYDROFURAN
Radii:
  Scheme                                          ... Element-dependent radii
  Radius for C  used is    3.8550 Bohr (=   2.0400 Ang.)
  Radius for H  used is    2.4944 Bohr (=   1.3200 Ang.)
Calculating surface                               ...        done! (  0.1s)
Cavity surface points                             ...         1792
Cavity Volume                                     ...    1154.9553
Cavity Surface-area                               ...     605.9711
Calculating surface distance matrix               ...        done! (  0.0s)
Performing Cholesky decomposition & store         ...        done! (  0.1s)
Overall time for CPCM initialization              ...                 0.2s

----------------------------------------D-I-I-S--------------------------------------------
Iteration    Energy (Eh)           Delta-E    RMSDP     MaxDP     DIISErr   Damp  Time(sec)
-------------------------------------------------------------------------------------------
               ***  Starting incremental Fock matrix formation  ***
    1    -388.4291645609270063     0.00e+00  1.84e-03  4.15e-02  1.39e-01  0.700   8.9
    2    -388.4495751527574612    -2.04e-02  1.36e-03  2.89e-02  9.71e-02  0.700   3.3
                               ***Turning on AO-DIIS***
    3    -388.4625648428110480    -1.30e-02  1.01e-03  1.95e-02  6.72e-02  0.700   3.3
    4    -388.4713020695550085    -8.74e-03  2.57e-03  4.43e-02  4.67e-02  0.000   3.2
                              *** Initializing SOSCF ***
---------------------------------------S-O-S-C-F--------------------------------------
Iteration    Energy (Eh)           Delta-E    RMSDP     MaxDP     MaxGrad    Time(sec)
--------------------------------------------------------------------------------------
    5    -388.4919692843999428    -2.07e-02  2.48e-04  2.32e-03  3.02e-03     3.4
               *** Restarting incremental Fock matrix formation ***
    6    -388.4921018999916669    -1.33e-04  1.76e-04  1.76e-03  5.93e-04     6.2
    7    -388.4921225022220597    -2.06e-05  9.31e-05  9.17e-04  1.91e-04     5.1
    8    -388.4921250325029405    -2.53e-06  2.74e-05  2.71e-04  1.12e-04     4.9
    9    -388.4921261310777254    -1.10e-06  4.96e-06  4.55e-05  1.31e-05     4.5
   10    -388.4921261436767281    -1.26e-08  1.37e-06  1.62e-05  1.67e-05     4.2
   11    -388.4921261401880201     3.49e-09  6.13e-07  8.93e-06  4.78e-06     3.5
                 **** Energy Check signals convergence ****

               *****************************************************
               *                     SUCCESS                       *
               *           SCF CONVERGED AFTER  11 CYCLES          *
               *****************************************************

Recomputing exchange energy using gridx3       ... done (   10.216 sec)
Old exchange energy                            :    -18.743860628 Eh
New exchange energy                            :    -18.743850653 Eh
Exchange energy change after final integration :      0.000009974 Eh
Total energy after final integration           :   -388.492116161 Eh
             **** ENERGY FILE WAS UPDATED (scale_1.2.inp.en.tmp) ****

----------------
TOTAL SCF ENERGY
----------------

Total Energy       :       -388.49211616092947 Eh          -10571.40792 eV

Components:
Nuclear Repulsion  :        542.38437430595172 Eh           14759.02916 eV
Electronic Energy  :       -930.87286319835948 Eh          -25330.33838 eV
One Electron Energy:      -1598.51786829850334 Eh          -43497.88259 eV
Two Electron Energy:        667.64500510014386 Eh           18167.54421 eV
CPCM Dielectric    :         -0.00363724299431 Eh              -0.09897 eV

Virial components:
Potential Energy   :       -774.62269876071991 Eh          -21078.55525 eV
Kinetic Energy     :        386.13058259979039 Eh           10507.14733 eV
Virial Ratio       :          2.00611589360583

DFT components:
N(Alpha)           :       36.000038884028 electrons
N(Beta)            :       36.000038884028 electrons
N(Total)           :       72.000077768056 electrons
E(X)               :      -37.409496856943 Eh       
E(C)               :       -2.953211549469 Eh       
E(XC)              :      -40.362708406412 Eh       

CPCM Solvation Model Properties:
Surface-charge          :         -0.02832681529418
Corrected charge        :          0.00000000000000
Outlying charge corr.   :          0.00005174743414 Eh               0.00141 eV
Free-energy (cav+disp)  :  This term is not implemented in the current solvation scheme

---------------
SCF CONVERGENCE
---------------

  Last Energy change         ...   -3.4887e-09  Tolerance :   1.0000e-08
  Last MAX-Density change    ...    8.9260e-06  Tolerance :   1.0000e-07
  Last RMS-Density change    ...    6.1274e-07  Tolerance :   5.0000e-09
  Last DIIS Error            ...    3.0213e-03  Tolerance :   5.0000e-07
  Last Orbital Gradient      ...    4.7834e-06  Tolerance :   1.0000e-05
  Last Orbital Rotation      ...    1.9562e-05  Tolerance :   1.0000e-05


----------------
ORBITAL ENERGIES
----------------

  NO   OCC          E(Eh)            E(eV) 
   0   2.0000     -10.271260      -279.4952 
   1   2.0000     -10.270496      -279.4744 
   2   2.0000     -10.267449      -279.3915 
   3   2.0000     -10.267032      -279.3801 
   4   2.0000     -10.264361      -279.3075 
   5   2.0000     -10.262792      -279.2648 
   6   2.0000     -10.261721      -279.2356 
   7   2.0000     -10.261416      -279.2273 
   8   2.0000     -10.260575      -279.2044 
   9   2.0000     -10.257740      -279.1273 
  10   2.0000      -1.034246       -28.1433 
  11   2.0000      -0.939125       -25.5549 
  12   2.0000      -0.870304       -23.6822 
  13   2.0000      -0.855518       -23.2798 
  14   2.0000      -0.805722       -21.9248 
  15   2.0000      -0.791489       -21.5375 
  16   2.0000      -0.688595       -18.7376 
  17   2.0000      -0.684226       -18.6187 
  18   2.0000      -0.661585       -18.0026 
  19   2.0000      -0.637127       -17.3371 
  20   2.0000      -0.613007       -16.6808 
  21   2.0000      -0.599844       -16.3226 
  22   2.0000      -0.575815       -15.6687 
  23   2.0000      -0.536535       -14.5999 
  24   2.0000      -0.505391       -13.7524 
  25   2.0000      -0.501992       -13.6599 
  26   2.0000      -0.482207       -13.1215 
  27   2.0000      -0.457493       -12.4490 
  28   2.0000      -0.446038       -12.1373 
  29   2.0000      -0.439355       -11.9555 
  30   2.0000      -0.425893       -11.5891 
  31   2.0000      -0.418712       -11.3937 
  32   2.0000      -0.410549       -11.1716 
  33   2.0000      -0.399371       -10.8674 
  34   2.0000      -0.361364        -9.8332 
  35   2.0000      -0.297117        -8.0850 
  36   0.0000       0.071497         1.9455 
  37   0.0000       0.117620         3.2006 
  38   0.0000       0.129058         3.5119 
  39   0.0000       0.143617         3.9080 
  40   0.0000       0.145098         3.9483 
  41   0.0000       0.154707         4.2098 
  42   0.0000       0.169533         4.6132 
  43   0.0000       0.171987         4.6800 
  44   0.0000       0.179225         4.8770 
  45   0.0000       0.187648         5.1062 
  46   0.0000       0.199463         5.4277 
*Only the first 10 virtual orbitals were printed.

                    ********************************
                    * MULLIKEN POPULATION ANALYSIS *
                    ********************************

-----------------------
MULLIKEN ATOMIC CHARGES
-----------------------
   0 C :   -0.222662
   1 C :   -0.022308
   2 C :   -0.002113
   3 C :   -0.263542
   4 H :    0.169420
   5 H :    0.169679
   6 C :   -0.228827
   7 H :    0.108075
   8 H :    0.104576
   9 C :   -0.048734
  10 H :    0.117871
  11 C :   -0.104518
  12 H :    0.126490
  13 H :    0.096949
  14 H :    0.092670
  15 C :   -0.210031
  16 H :    0.164511
  17 C :   -0.230864
  18 H :    0.158947
  19 C :   -0.204374
  20 H :    0.122227
  21 H :    0.106558
Sum of atomic charges:   -0.0000000

--------------------------------
MULLIKEN REDUCED ORBITAL CHARGES
--------------------------------
  0 C s       :     3.286318  s :     3.286318
      pz      :     0.970348  p :     2.834510
      px      :     0.933732
      py      :     0.930430
      dz2     :     0.008988  d :     0.093455
      dxz     :     0.013837
      dyz     :     0.016804
      dx2y2   :     0.028883
      dxy     :     0.024941
      f0      :     0.001388  f :     0.008379
      f+1     :     0.000846
      f-1     :     0.000552
      f+2     :     0.001030
      f-2     :     0.000705
      f+3     :     0.001356
      f-3     :     0.002504

  1 C s       :     3.146767  s :     3.146767
      pz      :     0.892142  p :     2.741721
      px      :     0.904969
      py      :     0.944609
      dz2     :     0.028804  d :     0.125145
      dxz     :     0.025214
      dyz     :     0.021474
      dx2y2   :     0.021105
      dxy     :     0.028548
      f0      :     0.001284  f :     0.008676
      f+1     :     0.001371
      f-1     :     0.001629
      f+2     :     0.001165
      f-2     :     0.000583
      f+3     :     0.001272
      f-3     :     0.001372

  2 C s       :     3.136196  s :     3.136196
      pz      :     0.894245  p :     2.734815
      px      :     0.873388
      py      :     0.967182
      dz2     :     0.025766  d :     0.122667
      dxz     :     0.025416
      dyz     :     0.021021
      dx2y2   :     0.027550
      dxy     :     0.022914
      f0      :     0.001279  f :     0.008435
      f+1     :     0.001482
      f-1     :     0.001197
      f+2     :     0.000599
      f-2     :     0.001267
      f+3     :     0.001382
      f-3     :     0.001229

  3 C s       :     3.340404  s :     3.340404
      pz      :     0.960806  p :     2.822599
      px      :     0.953985
      py      :     0.907808
      dz2     :     0.008596  d :     0.092110
      dxz     :     0.008969
      dyz     :     0.018097
      dx2y2   :     0.030216
      dxy     :     0.026232
      f0      :     0.001273  f :     0.008430
      f+1     :     0.000882
      f-1     :     0.000629
      f+2     :     0.000450
      f-2     :     0.001150
      f+3     :     0.001491
      f-3     :     0.002555

  4 H s       :     0.805573  s :     0.805573
      pz      :     0.009111  p :     0.022920
      px      :     0.009145
      py      :     0.004664
      dz2     :     0.000171  d :     0.002088
      dxz     :     0.000142
      dyz     :     0.000559
      dx2y2   :     0.000671
      dxy     :     0.000545

  5 H s       :     0.806785  s :     0.806785
      pz      :     0.010683  p :     0.021491
      px      :     0.003369
      py      :     0.007439
      dz2     :     0.000087  d :     0.002045
      dxz     :     0.000673
      dyz     :     0.000110
      dx2y2   :     0.000414
      dxy     :     0.000761

  6 C s       :     3.253228  s :     3.253228
      pz      :     1.005128  p :     2.871207
      px      :     0.953082
      py      :     0.912997
      dz2     :     0.028775  d :     0.097789
      dxz     :     0.010453
      dyz     :     0.015323
      dx2y2   :     0.019839
      dxy     :     0.023399
      f0      :     0.001037  f :     0.006603
      f+1     :     0.000741
      f-1     :     0.001089
      f+2     :     0.000774
      f-2     :     0.000695
      f+3     :     0.001236
      f-3     :     0.001030

  7 H s       :     0.858767  s :     0.858767
      pz      :     0.009485  p :     0.030520
      px      :     0.010815
      py      :     0.010219
      dz2     :     0.000349  d :     0.002638
      dxz     :     0.000664
      dyz     :     0.000157
      dx2y2   :     0.000807
      dxy     :     0.000661

  8 H s       :     0.863673  s :     0.863673
      pz      :     0.008617  p :     0.029081
      px      :     0.009731
      py      :     0.010734
      dz2     :     0.000355  d :     0.002669
      dxz     :     0.001040
      dyz     :     0.001211
      dx2y2   :     0.000030
      dxy     :     0.000033

  9 C s       :     3.166339  s :     3.166339
      pz      :     0.909200  p :     2.746144
      px      :     0.948040
      py      :     0.888904
      dz2     :     0.023101  d :     0.127475
      dxz     :     0.031438
      dyz     :     0.025076
      dx2y2   :     0.023985
      dxy     :     0.023875
      f0      :     0.001549  f :     0.008777
      f+1     :     0.001491
      f-1     :     0.001244
      f+2     :     0.001006
      f-2     :     0.000858
      f+3     :     0.001465
      f-3     :     0.001164

 10 H s       :     0.843011  s :     0.843011
      pz      :     0.011111  p :     0.036041
      px      :     0.012795
      py      :     0.012135
      dz2     :     0.000988  d :     0.003077
      dxz     :     0.000354
      dyz     :     0.000352
      dx2y2   :     0.000531
      dxy     :     0.000852

 11 C s       :     3.206867  s :     3.206867
      pz      :     0.851170  p :     2.761004
      px      :     0.987612
      py      :     0.922222
      dz2     :     0.033182  d :     0.127828
      dxz     :     0.023606
      dyz     :     0.024026
      dx2y2   :     0.017608
      dxy     :     0.029407
      f0      :     0.001946  f :     0.008818
      f+1     :     0.001764
      f-1     :     0.000977
      f+2     :     0.001099
      f-2     :     0.000905
      f+3     :     0.001004
      f-3     :     0.001124

 12 H s       :     0.835394  s :     0.835394
      pz      :     0.013834  p :     0.034943
      px      :     0.011005
      py      :     0.010104
      dz2     :     0.000198  d :     0.003173
      dxz     :     0.000989
      dyz     :     0.000515
      dx2y2   :     0.001263
      dxy     :     0.000208

 13 H s       :     0.863913  s :     0.863913
      pz      :     0.011661  p :     0.036145
      px      :     0.013281
      py      :     0.011202
      dz2     :     0.000370  d :     0.002993
      dxz     :     0.000363
      dyz     :     0.000687
      dx2y2   :     0.001202
      dxy     :     0.000372

 14 H s       :     0.867884  s :     0.867884
      pz      :     0.012101  p :     0.036395
      px      :     0.011127
      py      :     0.013167
      dz2     :     0.000358  d :     0.003051
      dxz     :     0.000127
      dyz     :     0.000986
      dx2y2   :     0.000484
      dxy     :     0.001096

 15 C s       :     3.274423  s :     3.274423
      pz      :     0.945484  p :     2.830827
      px      :     0.914835
      py      :     0.970508
      dz2     :     0.022684  d :     0.096609
      dxz     :     0.015196
      dyz     :     0.010381
      dx2y2   :     0.032116
      dxy     :     0.016233
      f0      :     0.000638  f :     0.008173
      f+1     :     0.001256
      f-1     :     0.001164
      f+2     :     0.001149
      f-2     :     0.000899
      f+3     :     0.001571
      f-3     :     0.001496

 16 H s       :     0.808647  s :     0.808647
      pz      :     0.008860  p :     0.024729
      px      :     0.010164
      py      :     0.005705
      dz2     :     0.000175  d :     0.002113
      dxz     :     0.000038
      dyz     :     0.000717
      dx2y2   :     0.000257
      dxy     :     0.000925

 17 C s       :     3.287850  s :     3.287850
      pz      :     0.974417  p :     2.848344
      px      :     0.965592
      py      :     0.908335
      dz2     :     0.010988  d :     0.087020
      dxz     :     0.013029
      dyz     :     0.015027
      dx2y2   :     0.030431
      dxy     :     0.017546
      f0      :     0.000610  f :     0.007650
      f+1     :     0.000987
      f-1     :     0.001012
      f+2     :     0.001084
      f-2     :     0.000991
      f+3     :     0.001408
      f-3     :     0.001557

 18 H s       :     0.814338  s :     0.814338
      pz      :     0.010336  p :     0.024579
      px      :     0.004605
      py      :     0.009638
      dz2     :     0.000383  d :     0.002136
      dxz     :     0.000482
      dyz     :     0.000143
      dx2y2   :     0.000241
      dxy     :     0.000887

 19 C s       :     3.219683  s :     3.219683
      pz      :     0.965245  p :     2.879389
      px      :     0.967994
      py      :     0.946150
      dz2     :     0.024294  d :     0.099505
      dxz     :     0.018936
      dyz     :     0.014074
      dx2y2   :     0.013090
      dxy     :     0.029111
      f0      :     0.000848  f :     0.005797
      f+1     :     0.001153
      f-1     :     0.000481
      f+2     :     0.000580
      f-2     :     0.000876
      f+3     :     0.000970
      f-3     :     0.000889

 20 H s       :     0.844642  s :     0.844642
      pz      :     0.010516  p :     0.030459
      px      :     0.009626
      py      :     0.010317
      dz2     :     0.000909  d :     0.002672
      dxz     :     0.000486
      dyz     :     0.000709
      dx2y2   :     0.000177
      dxy     :     0.000390

 21 H s       :     0.860367  s :     0.860367
      pz      :     0.010263  p :     0.030449
      px      :     0.009498
      py      :     0.010689
      dz2     :     0.000112  d :     0.002625
      dxz     :     0.000469
      dyz     :     0.000620
      dx2y2   :     0.001055
      dxy     :     0.000369



                     *******************************
                     * LOEWDIN POPULATION ANALYSIS *
                     *******************************

----------------------
LOEWDIN ATOMIC CHARGES
----------------------
   0 C :    0.064123
   1 C :    0.015855
   2 C :    0.015996
   3 C :    0.075947
   4 H :   -0.054607
   5 H :   -0.052691
   6 C :    0.097965
   7 H :   -0.032361
   8 H :   -0.035120
   9 C :    0.020987
  10 H :   -0.034986
  11 C :    0.019475
  12 H :   -0.027678
  13 H :   -0.042692
  14 H :   -0.041473
  15 C :    0.065271
  16 H :   -0.045955
  17 C :    0.050408
  18 H :   -0.063509
  19 C :    0.077632
  20 H :   -0.031000
  21 H :   -0.041589

-------------------------------
LOEWDIN REDUCED ORBITAL CHARGES
-------------------------------
  0 C s       :     2.712702  s :     2.712702
      pz      :     0.835109  p :     2.785864
      px      :     0.934201
      py      :     1.016554
      dz2     :     0.044111  d :     0.394381
      dxz     :     0.053888
      dyz     :     0.047002
      dx2y2   :     0.128582
      dxy     :     0.120798
      f0      :     0.003796  f :     0.042931
      f+1     :     0.004206
      f-1     :     0.002910
      f+2     :     0.005158
      f-2     :     0.004419
      f+3     :     0.007567
      f-3     :     0.014874

  1 C s       :     2.646211  s :     2.646211
      pz      :     0.909107  p :     2.765520
      px      :     0.920184
      py      :     0.936229
      dz2     :     0.125363  d :     0.514661
      dxz     :     0.086948
      dyz     :     0.090647
      dx2y2   :     0.092988
      dxy     :     0.118714
      f0      :     0.006947  f :     0.057753
      f+1     :     0.009148
      f-1     :     0.010943
      f+2     :     0.009591
      f-2     :     0.004774
      f+3     :     0.008462
      f-3     :     0.007887

  2 C s       :     2.646083  s :     2.646083
      pz      :     0.906542  p :     2.762833
      px      :     0.906016
      py      :     0.950275
      dz2     :     0.115110  d :     0.518687
      dxz     :     0.106140
      dyz     :     0.076874
      dx2y2   :     0.117178
      dxy     :     0.103386
      f0      :     0.007097  f :     0.056401
      f+1     :     0.009836
      f-1     :     0.008318
      f+2     :     0.005730
      f-2     :     0.009498
      f+3     :     0.009124
      f-3     :     0.006797

  3 C s       :     2.712245  s :     2.712245
      pz      :     0.837107  p :     2.792974
      px      :     0.959651
      py      :     0.996216
      dz2     :     0.039383  d :     0.376336
      dxz     :     0.026902
      dyz     :     0.059424
      dx2y2   :     0.127247
      dxy     :     0.123379
      f0      :     0.002440  f :     0.042497
      f+1     :     0.004048
      f-1     :     0.003353
      f+2     :     0.003383
      f-2     :     0.005807
      f+3     :     0.009465
      f-3     :     0.014001

  4 H s       :     0.856596  s :     0.856596
      pz      :     0.047943  p :     0.168123
      px      :     0.051487
      py      :     0.068693
      dz2     :     0.003200  d :     0.029888
      dxz     :     0.002175
      dyz     :     0.007588
      dx2y2   :     0.008298
      dxy     :     0.008626

  5 H s       :     0.855776  s :     0.855776
      pz      :     0.046931  p :     0.167172
      px      :     0.078783
      py      :     0.041457
      dz2     :     0.002762  d :     0.029743
      dxz     :     0.008446
      dyz     :     0.000894
      dx2y2   :     0.008834
      dxy     :     0.008808

  6 C s       :     2.644717  s :     2.644717
      pz      :     0.959226  p :     2.793902
      px      :     0.931591
      py      :     0.903085
      dz2     :     0.128263  d :     0.419449
      dxz     :     0.044886
      dyz     :     0.062513
      dx2y2   :     0.087026
      dxy     :     0.096761
      f0      :     0.005227  f :     0.043966
      f+1     :     0.004305
      f-1     :     0.006250
      f+2     :     0.007322
      f-2     :     0.006768
      f+3     :     0.007772
      f-3     :     0.006323

  7 H s       :     0.838595  s :     0.838595
      pz      :     0.045786  p :     0.162149
      px      :     0.067519
      py      :     0.048844
      dz2     :     0.004535  d :     0.031617
      dxz     :     0.007861
      dyz     :     0.001938
      dx2y2   :     0.008841
      dxy     :     0.008442

  8 H s       :     0.840598  s :     0.840598
      pz      :     0.076231  p :     0.162800
      px      :     0.041439
      py      :     0.045129
      dz2     :     0.010928  d :     0.031721
      dxz     :     0.010326
      dyz     :     0.010193
      dx2y2   :     0.000132
      dxy     :     0.000143

  9 C s       :     2.644342  s :     2.644342
      pz      :     0.909318  p :     2.765544
      px      :     0.945717
      py      :     0.910509
      dz2     :     0.102256  d :     0.511303
      dxz     :     0.118106
      dyz     :     0.093981
      dx2y2   :     0.101292
      dxy     :     0.095668
      f0      :     0.009837  f :     0.057824
      f+1     :     0.008119
      f-1     :     0.008937
      f+2     :     0.007496
      f-2     :     0.006238
      f+3     :     0.009967
      f-3     :     0.007231

 10 H s       :     0.833444  s :     0.833444
      pz      :     0.055059  p :     0.169479
      px      :     0.066380
      py      :     0.048040
      dz2     :     0.007151  d :     0.032064
      dxz     :     0.008297
      dyz     :     0.003263
      dx2y2   :     0.006332
      dxy     :     0.007021

 11 C s       :     2.641107  s :     2.641107
      pz      :     0.901015  p :     2.762291
      px      :     0.940999
      py      :     0.920277
      dz2     :     0.146599  d :     0.520913
      dxz     :     0.105146
      dyz     :     0.085653
      dx2y2   :     0.072927
      dxy     :     0.110588
      f0      :     0.012227  f :     0.056214
      f+1     :     0.007957
      f-1     :     0.009155
      f+2     :     0.007790
      f-2     :     0.005870
      f+3     :     0.005808
      f-3     :     0.007406

 12 H s       :     0.825310  s :     0.825310
      pz      :     0.045204  p :     0.169207
      px      :     0.069163
      py      :     0.054840
      dz2     :     0.003355  d :     0.033161
      dxz     :     0.007312
      dyz     :     0.003851
      dx2y2   :     0.010354
      dxy     :     0.008289

 13 H s       :     0.845222  s :     0.845222
      pz      :     0.046401  p :     0.166101
      px      :     0.055049
      py      :     0.064651
      dz2     :     0.003982  d :     0.031370
      dxz     :     0.003495
      dyz     :     0.006283
      dx2y2   :     0.009693
      dxy     :     0.007916

 14 H s       :     0.843036  s :     0.843036
      pz      :     0.046744  p :     0.166718
      px      :     0.044853
      py      :     0.075122
      dz2     :     0.003952  d :     0.031718
      dxz     :     0.000961
      dyz     :     0.009096
      dx2y2   :     0.008109
      dxy     :     0.009599

 15 C s       :     2.722015  s :     2.722015
      pz      :     0.862896  p :     2.780753
      px      :     0.930014
      py      :     0.987844
      dz2     :     0.078361  d :     0.392097
      dxz     :     0.063289
      dyz     :     0.044150
      dx2y2   :     0.120243
      dxy     :     0.086054
      f0      :     0.003285  f :     0.039863
      f+1     :     0.003922
      f-1     :     0.004230
      f+2     :     0.005698
      f-2     :     0.006265
[...]
     64       0.000054   0.001013  -0.006983   0.005588  -0.010867   0.004298
     65      -0.000314   0.000633  -0.007527   0.005942  -0.009821   0.004872


-----------
IR SPECTRUM
-----------

 Mode   freq       eps      Int      T**2         TX        TY        TZ
       cm**-1   L/(mol*cm) km/mol    a.u.
----------------------------------------------------------------------------
  6:    145.27   0.000035    0.18  0.000075  (-0.004699  0.002997  0.006641)
  7:    197.69   0.000069    0.35  0.000109  ( 0.009697  0.003619  0.001238)
  8:    329.38   0.000090    0.45  0.000085  (-0.006750  0.000557 -0.006267)
  9:    388.90   0.000307    1.55  0.000246  ( 0.000629 -0.010536 -0.011610)
 10:    466.47   0.000383    1.94  0.000256  (-0.004939  0.000364  0.015222)
 11:    480.73   0.000009    0.04  0.000006  (-0.001821  0.001504 -0.000009)
 12:    494.21   0.004016   20.30  0.002536  (-0.009016 -0.009111  0.048699)
 13:    643.80   0.000107    0.54  0.000052  (-0.002588  0.005571  0.003779)
 14:    702.34   0.003623   18.31  0.001610  ( 0.034708  0.004539 -0.019605)
 15:    723.93   0.001921    9.71  0.000828  ( 0.021332 -0.011807 -0.015291)
 16:    754.60   0.005620   28.40  0.002324  (-0.013031 -0.007521 -0.045803)
 17:    785.54   0.014448   73.02  0.005740  ( 0.022171 -0.007164 -0.072089)
 18:    809.25   0.000263    1.33  0.000101  ( 0.001719  0.003015 -0.009454)
 19:    827.14   0.002592   13.10  0.000978  ( 0.008878  0.001203  0.029962)
 20:    848.86   0.003620   18.30  0.001331  (-0.003330  0.029728 -0.020882)
 21:    903.65   0.000093    0.47  0.000032  ( 0.004050  0.003772  0.001263)
 22:    919.08   0.000287    1.45  0.000097  ( 0.006358  0.007462  0.001161)
 23:    940.70   0.002743   13.86  0.000910  ( 0.013166 -0.001697  0.027088)
 24:    962.63   0.002337   11.81  0.000758  ( 0.019269 -0.018707  0.006028)
 25:    972.84   0.000369    1.86  0.000118  ( 0.003606  0.009169 -0.004614)
 26:    980.37   0.000256    1.30  0.000082  ( 0.008842  0.001542  0.001024)
 27:    981.97   0.000641    3.24  0.000204  ( 0.004953 -0.000753 -0.013361)
 28:    989.66   0.000655    3.31  0.000206  ( 0.008389 -0.011384 -0.002537)
 29:   1005.90   0.000092    0.46  0.000028  (-0.000828 -0.002843  0.004439)
 30:   1027.04   0.000928    4.69  0.000282  (-0.008583 -0.011838  0.008259)
 31:   1058.63   0.001041    5.26  0.000307  ( 0.001134  0.011739 -0.012956)
 32:   1066.29   0.000055    0.28  0.000016  (-0.001916 -0.003442  0.000815)
 33:   1102.40   0.000496    2.50  0.000140  ( 0.006167 -0.004399  0.009105)
 34:   1119.17   0.000224    1.13  0.000063  ( 0.002355 -0.004727 -0.005886)
 35:   1126.86   0.000217    1.10  0.000060  (-0.003858 -0.004439  0.005060)
 36:   1145.90   0.000025    0.12  0.000007  (-0.000393  0.000464 -0.002518)
 37:   1174.20   0.000896    4.53  0.000238  ( 0.012319  0.002870  0.008844)
 38:   1195.47   0.000840    4.24  0.000219  ( 0.010502 -0.003835 -0.009704)
 39:   1211.25   0.000075    0.38  0.000019  (-0.002992  0.003225  0.000135)
 40:   1275.83   0.000502    2.54  0.000123  ( 0.006294 -0.008177 -0.004034)
 41:   1291.97   0.000973    4.92  0.000235  (-0.015035 -0.001160  0.002751)
 42:   1296.46   0.001280    6.47  0.000308  (-0.002793 -0.017324  0.000522)
 43:   1307.59   0.000712    3.60  0.000170  ( 0.005104 -0.011610  0.002999)
 44:   1312.32   0.000987    4.99  0.000235  ( 0.008378 -0.007835  0.010154)
 45:   1323.97   0.000136    0.69  0.000032  ( 0.004971 -0.001959  0.001854)
 46:   1351.13   0.000347    1.75  0.000080  (-0.001663 -0.005749  0.006659)
 47:   1358.94   0.000573    2.90  0.000132  (-0.007029 -0.007491 -0.005107)
 48:   1388.60   0.004470   22.59  0.001005  ( 0.011904 -0.029219  0.003025)
 49:   1403.95   0.000223    1.13  0.000050  ( 0.006619  0.000391  0.002390)
 50:   1486.30   0.001762    8.90  0.000370  (-0.010082  0.015922 -0.003833)
 51:   1499.36   0.000823    4.16  0.000171  ( 0.008834  0.001782  0.009490)
 52:   1676.40   0.000648    3.27  0.000121  ( 0.007098  0.000986 -0.008322)
 53:   1717.46   0.000759    3.83  0.000138  (-0.001715 -0.009178 -0.007119)
 54:   3054.05   0.012453   62.93  0.001272  (-0.019785  0.026904 -0.012534)
 55:   3069.19   0.005630   28.45  0.000572  ( 0.013111 -0.015086 -0.013152)
 56:   3072.50   0.016017   80.94  0.001627  (-0.038756 -0.001814 -0.011023)
 57:   3081.94   0.003176   16.05  0.000322  (-0.000634 -0.000264 -0.017920)
 58:   3105.62   0.015578   78.72  0.001565  (-0.029906 -0.016316  0.020117)
 59:   3129.34   0.016405   82.91  0.001636  ( 0.015788  0.027389 -0.025230)
 60:   3130.31   0.020885  105.54  0.002082  (-0.013104  0.041006  0.015127)
 61:   3137.09   0.008690   43.91  0.000864  ( 0.022795 -0.007938  0.016787)
 62:   3182.47   0.002860   14.45  0.000280  (-0.012042  0.009494 -0.006730)
 63:   3206.03   0.002057   10.40  0.000200  ( 0.004765 -0.013178  0.001970)
 64:   3207.98   0.007805   39.44  0.000759  (-0.009675 -0.020309 -0.015910)
 65:   3231.23   0.003956   19.99  0.000382  ( 0.017868  0.005040 -0.006117)

* The epsilon (eps) is given for a Dirac delta lineshape.
** The dipole moment derivative (T) already includes vibrational overlap.

The first frequency considered to be a vibration is 6
The total number of vibrations considered is 60


--------------------------
THERMOCHEMISTRY AT 313.15K
--------------------------

Temperature         ...   313.15 K
Pressure            ...     1.00 atm
Total Mass          ...   132.21 AMU
Quasi RRHO          ...     True
Cut-Off Frequency   ...     1.00 cm^-1

Throughout the following assumptions are being made:
  (1) The electronic state is orbitally nondegenerate
  (2) There are no thermally accessible electronically excited states
  (3) Hindered rotations indicated by low frequency modes are not
      treated as such but are treated as vibrations and this may
      cause some error
  (4) All equations used are the standard statistical mechanics
      equations for an ideal gas
  (5) All vibrations are strictly harmonic

freq.     145.27  E(vib)   ...       0.44 
freq.     197.69  E(vib)   ...       0.38 
freq.     329.38  E(vib)   ...       0.27 
freq.     388.90  E(vib)   ...       0.22 
freq.     466.47  E(vib)   ...       0.18 
freq.     480.73  E(vib)   ...       0.17 
freq.     494.21  E(vib)   ...       0.16 
freq.     643.80  E(vib)   ...       0.10 
freq.     702.34  E(vib)   ...       0.08 
freq.     723.93  E(vib)   ...       0.08 
freq.     754.60  E(vib)   ...       0.07 
freq.     785.54  E(vib)   ...       0.06 
freq.     809.25  E(vib)   ...       0.06 
freq.     827.14  E(vib)   ...       0.05 
freq.     848.86  E(vib)   ...       0.05 
freq.     903.65  E(vib)   ...       0.04 
freq.     919.08  E(vib)   ...       0.04 
freq.     940.70  E(vib)   ...       0.04 
freq.     962.63  E(vib)   ...       0.03 
freq.     972.84  E(vib)   ...       0.03 
freq.     980.37  E(vib)   ...       0.03 
freq.     981.97  E(vib)   ...       0.03 
freq.     989.66  E(vib)   ...       0.03 
freq.    1005.90  E(vib)   ...       0.03 
freq.    1027.04  E(vib)   ...       0.03 
freq.    1058.63  E(vib)   ...       0.02 
freq.    1066.29  E(vib)   ...       0.02 
freq.    1102.40  E(vib)   ...       0.02 
freq.    1119.17  E(vib)   ...       0.02 
freq.    1126.86  E(vib)   ...       0.02 
freq.    1145.90  E(vib)   ...       0.02 
freq.    1174.20  E(vib)   ...       0.02 
freq.    1195.47  E(vib)   ...       0.01 
freq.    1211.25  E(vib)   ...       0.01 
freq.    1275.83  E(vib)   ...       0.01 
freq.    1291.97  E(vib)   ...       0.01 
freq.    1296.46  E(vib)   ...       0.01 
freq.    1307.59  E(vib)   ...       0.01 
freq.    1312.32  E(vib)   ...       0.01 
freq.    1323.97  E(vib)   ...       0.01 
freq.    1351.13  E(vib)   ...       0.01 
freq.    1358.94  E(vib)   ...       0.01 
freq.    1388.60  E(vib)   ...       0.01 
freq.    1403.95  E(vib)   ...       0.01 
freq.    1486.30  E(vib)   ...       0.00 
freq.    1499.36  E(vib)   ...       0.00 
freq.    1676.40  E(vib)   ...       0.00 
freq.    1717.46  E(vib)   ...       0.00 
freq.    3054.05  E(vib)   ...       0.00 
freq.    3069.19  E(vib)   ...       0.00 
freq.    3072.50  E(vib)   ...       0.00 
freq.    3081.94  E(vib)   ...       0.00 
freq.    3105.62  E(vib)   ...       0.00 
freq.    3129.34  E(vib)   ...       0.00 
freq.    3130.31  E(vib)   ...       0.00 
freq.    3137.09  E(vib)   ...       0.00 
freq.    3182.47  E(vib)   ...       0.00 
freq.    3206.03  E(vib)   ...       0.00 
freq.    3207.98  E(vib)   ...       0.00 
freq.    3231.23  E(vib)   ...       0.00 

------------
INNER ENERGY
------------

The inner energy is: U= E(el) + E(ZPE) + E(vib) + E(rot) + E(trans)
    E(el)   - is the total energy from the electronic structure calculation
              = E(kin-el) + E(nuc-el) + E(el-el) + E(nuc-nuc)
    E(ZPE)  - the the zero temperature vibrational energy from the frequency calculation
    E(vib)  - the the finite temperature correction to E(ZPE) due to population
              of excited vibrational states
    E(rot)  - is the rotational thermal energy
    E(trans)- is the translational thermal energy

Summary of contributions to the inner energy U:
Electronic energy                ...   -388.58262387 Eh
Zero point energy                ...      0.19542161 Eh     122.63 kcal/mol
Thermal vibrational correction   ...      0.00472522 Eh       2.97 kcal/mol
Thermal rotational correction    ...      0.00148752 Eh       0.93 kcal/mol
Thermal translational correction ...      0.00148752 Eh       0.93 kcal/mol
-----------------------------------------------------------------------
Total thermal energy                   -388.37950199 Eh


Summary of corrections to the electronic energy:
(perhaps to be used in another calculation)
Total thermal correction                  0.00770027 Eh       4.83 kcal/mol
Non-thermal (ZPE) correction              0.19542161 Eh     122.63 kcal/mol
-----------------------------------------------------------------------
Total correction                          0.20312188 Eh     127.46 kcal/mol


--------
ENTHALPY
--------

The enthalpy is H = U + kB*T
                kB is Boltzmann's constant
Total thermal energy              ...   -388.37950199 Eh 
Thermal Enthalpy correction       ...      0.00099171 Eh       0.62 kcal/mol
-----------------------------------------------------------------------
Total Enthalpy                    ...   -388.37851028 Eh


Note: Only C1 symmetry has been detected, increase convergence thresholds 
      if your molecule has a higher symmetry. Symmetry factor of 1.0 is   
      used for the rotational entropy correction. 
 

Note: Rotational entropy computed according to Herzberg 
Infrared and Raman Spectra, Chapter V,1, Van Nostrand Reinhold, 1945 
Point Group:  C1, Symmetry Number:   1  
Rotational constants in cm-1:     0.082888     0.049343     0.045385 

Vibrational entropy computed according to the QRRHO of S. Grimme
Chem.Eur.J. 2012 18 9955 using a reference frequency of 100.0 cm-1


-------
ENTROPY
-------

The entropy contributions are T*S = T*(S(el)+S(vib)+S(rot)+S(trans))
     S(el)   - electronic entropy
     S(vib)  - vibrational entropy
     S(rot)  - rotational entropy
     S(trans)- translational entropy
The entropies will be listed as multiplied by the temperature to get
units of energy

Electronic entropy                ...      0.00000000 Eh      0.00 kcal/mol
Vibrational entropy               ...      0.00715302 Eh      4.49 kcal/mol
Rotational entropy                ...      0.01432249 Eh      8.99 kcal/mol
Translational entropy             ...      0.02035766 Eh     12.77 kcal/mol
-----------------------------------------------------------------------
Final entropy term                ...      0.04183316 Eh     26.25 kcal/mol

In case the symmetry of your molecule has not been determined correctly
or in case you have a reason to use a different symmetry number we print 
out the resulting rotational entropy values for sn=1,12:

 non-linear molecules -----------------------------------
|  sn= 1 | S(rot)=       0.01432249 Eh      8.99 kcal/mol|
|  sn= 2 | S(rot)=       0.01363511 Eh      8.56 kcal/mol|
|  sn= 3 | S(rot)=       0.01323301 Eh      8.30 kcal/mol|
|  sn= 4 | S(rot)=       0.01294772 Eh      8.12 kcal/mol|
|  sn= 5 | S(rot)=       0.01272644 Eh      7.99 kcal/mol|
|  sn= 6 | S(rot)=       0.01254563 Eh      7.87 kcal/mol|
|  sn= 7 | S(rot)=       0.01239276 Eh      7.78 kcal/mol|
|  sn= 8 | S(rot)=       0.01226034 Eh      7.69 kcal/mol|
|  sn= 9 | S(rot)=       0.01214354 Eh      7.62 kcal/mol|
|  sn=10 | S(rot)=       0.01203906 Eh      7.55 kcal/mol|
|  sn=11 | S(rot)=       0.01194454 Eh      7.50 kcal/mol|
|  sn=12 | S(rot)=       0.01185825 Eh      7.44 kcal/mol|
 linear molecules ---------------------------------------
|  Dinfh | S(rot)=       0.00870928 Eh      5.47 kcal/mol|
|  Cinfv | S(rot)=       0.00939667 Eh      5.90 kcal/mol|
 --------------------------------------------------------


-------------------
GIBBS FREE ENERGY
-------------------

The Gibbs free energy is G = H - T*S

Total enthalpy                    ...   -388.37851028 Eh 
Total entropy correction          ...     -0.04183316 Eh    -26.25 kcal/mol
-----------------------------------------------------------------------
Final Gibbs free energy         ...   -388.42034344 Eh

For completeness - the Gibbs free energy minus the electronic energy
G-E(el)                           ...      0.16228043 Eh    101.83 kcal/mol


Maximum memory used throughout the entire PROP-calculation: 193.7 MB

--------------------------------
SUGGESTED CITATIONS FOR THIS RUN
--------------------------------

Below you find a list of papers that are relevant to this ORCA run
We neither can nor want to force you to cite these papers, but we appreciate if you do
You receive ORCA, which is the product of decades of hard work by many enthusiastic individuals, for free
The only thing we kindly ask in return is that you cite our papers,
We deeply appreciate it, if you show your appreciation for ORCA by not just citing the generic ORCA reference.

Please note that relegating all ORCA citations to the supporting information does *not* help us.
SI sections are not indexed - citations you put there will not count into any citation statistics
But we need these citations in order to attract the funding resources that allow us to do what we are doing

Therefore, if you are a happy ORCA user, please consider citing a few of the papers listed below in the main body of your paper

In addition to the list printed below, the program has created the file scale_1.2.inp.bibtex that contains the list in bibtex format
You can import this file easily into all common literature databanks and citation aid programs


List of essential papers. We consider these as the minimum necessary citations

  1. Neese, F.
     Software update: the ORCA program system, version 6.0
     WIRES Comput. Molec. Sci. 2025 15(1), e70019
     doi.org/10.1002/wcms.7019

List of papers to cite with high priority. The work reported in these papers was absolutely
necessary for this run to complete.
Our perspective: the developers of density functionals and basis sets usually get cited in chemistry papers
Good! But without the algorithms to do something with them, the functionals or basis sets would not do anything.
Hence, in our opinion, the algorithm design and method developments papers are equally worthy of getting cited

  1. Neese, F.
     An improvement of the resolution of the identity approximation for the formation of the Coulomb matrix
     J. Comp. Chem. 2003 24(14), 1740-1747
     doi.org/10.1002/jcc.10318
  2. Neese, F.; Wennmohs, F.; Hansen, A.; Becker, U.
     Efficient, approximate and parallel Hartree-Fock and hybrid DFT calculations. A 'chain-of-spheres' algorithm for the Hartree-Fock exchange
     Chem. Phys. 2009 356(1-3), 98-109
     doi.org/10.1016/j.chemphys.2008.10.036
  3. Grimme, S.; Antony, J.; Ehrlich, S.; Krieg, H.
     A consistent and accurate ab initio parametrization of density functional dispersion correction (DFT-D) for the 94 elements H-Pu
     J. Chem. Phys. 2010 132 , 154104
     doi.org/10.1063/1.3382344
  4. Grimme, S.; Ehrlich, S.; Goerigk, L.
     Effect of the damping function in dispersion corrected density functional theory
     J. Comput. Chem. 2011 32(7), 1456-1465
     doi.org/10.1002/jcc.21759
  5. Bykov, D.; Petrenko, T.; Izsak, R.; Kossmann, S.; Becker, U.; Valeev, E.; Neese, F.
     Efficient implementation of the analytic second derivatives of Hartree-Fock and hybrid DFT energies: a detailed analysis of different approximations
     Molec. Phys. 2015 113 , 1961-1977
     doi.org/10.1080/00268976.2015.1025114
  6. Garcia-Rates, M.; Neese, F.
     Efficient implementation of the analytical second derivatives of hartree-fock and hybrid DFT energies within the framework of the conductor-like polarizable continuum model
     J. Comput. Chem. 2019 40 , 1816-1828
     doi.org/10.1002/jcc.25833
  7. Garcia-Rates, M.; Neese, F.
     Effect of the Solute Cavity on the Solvation Energy and its Derivatives within the Framework of the Gaussian Charge Scheme
     J. Comput. Chem. 2020 41 , 922-939
     doi.org/10.1002/jcc.26139
  8. Helmich-Paris, B.; de Souza, B.; Neese, F.; Izsák, R.
     An improved chain of spheres for exchange algorithm
     J. Chem. Phys. 2021 155(10), 104109
     doi.org/10.1063/5.0058766
  9. Neese, F.
     The SHARK Integral Generation and Digestion System
     J. Comp. Chem. 2022 44(3), 381
     doi.org/10.1002/jcc.26942

List of suggested additional citations. These are papers that are important in the 'surrounding' of 
of this run, or papers that preceded the highly important papers. If you like your results we are grateful for a citation.

  1. Izsak, R.; Neese, F.
     An overlap fitted chain of spheres exchange method
     J. Chem. Phys. 2011 135 , 144105
     doi.org/10.1063/1.3646921
  2. Izsak, R.; Hansen, A.; Neese, F.
     The resolution of identity and chain of spheres approximations for the LPNO-CCSD singles Fock term
     Molec. Phys. 2012 110 , 2413-2417
     doi.org/10.1080/00268976.2012.687466
  3. Neese, F.
     The ORCA program system
     WIRES Comput. Molec. Sci. 2012 2(1), 73-78
     doi.org/10.1002/wcms.81
  4. Izsak, R.; Neese, F.; Klopper, W.
     Robust fitting techniques in the chain of spheres approximation to the Fock exchange: The role of the complementary space
     J. Chem. Phys. 2013 139 , 
     doi.org/10.1063/1.4819264
  5. Neese, F.
     Software update: the ORCA program system, version 4.0
     WIRES Comput. Molec. Sci. 2018 8(1), 1-6
     doi.org/10.1002/wcms.1327
  6. Neese, F.; Wennmohs, F.; Becker, U.; Riplinger, C.
     The ORCA quantum chemistry program package
     J. Chem. Phys. 2020 152(22), 224108
     doi.org/10.1063/5.0004608
  7. Neese, F.
     Software update: The ORCA program system—Version 5.0
     WIRES Comput. Molec. Sci. 2022 12(1), e1606
     doi.org/10.1002/wcms.1606

List of optional additional citations

  1. Neese, F.
     Approximate second-order SCF convergence for spin unrestricted wavefunctions
     Chem. Phys. Lett. 2000 325(1-3), 93-98
     doi.org/10.1016/s0009-2614(00)00662-x

Timings for individual modules:

Sum of individual times          ...     1689.176 sec (=  28.153 min)
Startup calculation              ...       50.958 sec (=   0.849 min)   3.0 %
SCF iterations                   ...      628.740 sec (=  10.479 min)  37.2 %
Property integrals               ...      212.952 sec (=   3.549 min)  12.6 %
SCF Response                     ...      153.481 sec (=   2.558 min)   9.1 %
Property calculations            ...      323.456 sec (=   5.391 min)  19.1 %
SCF Gradient evaluation          ...      319.020 sec (=   5.317 min)  18.9 %
Geometry relaxation              ...        0.569 sec (=   0.009 min)   0.0 %
                             ****ORCA TERMINATED NORMALLY****
TOTAL RUN TIME: 0 days 0 hours 28 minutes 20 seconds 771 msec
